-- Exported by resqml_to_grdecl
-- Grid: Grid_model

MAPUNITS
'METRES' /

GRIDUNIT
'METRES' ' ' /

GDORIENT
INC INC INC UP LEFT /

MAPAXES
0.0 0.0
1.0 0.0
0.0 1.0 /

SPECGRID
 5 5 3 1 /
COORD
 461499.957489 5926499.962402 1709.698730 461500.074921 5926500.067871 1749.481812 460402.521973 5928400.701660
 1673.563232 460402.489990 5928401.232910 1710.265503 459302.751465 5930300.973389 1691.191772 459307.797607
 5930302.803223 1726.637085 458202.680176 5932204.680420 1675.899292 458213.328613 5932200.416443 1711.420166
 457118.604980 5934105.397705 1711.137329 457096.564453 5934100.662842 1748.670776 457234.670898 5936701.062012
 1749.324341 457203.506836 5936703.224121 1790.103760 462707.992798 5927197.288574 1745.553711 462708.267761
 5927197.776367 1786.306152 461609.987610 5929096.931885 1702.892822 461611.361618 5929100.173096 1745.088745
 460508.715454 5930998.553711 1691.754028 460521.106212 5930999.577947 1728.342651 459406.683838 5932910.600365
 1684.869995 459423.032959 5932892.047356 1721.807251 458364.970459 5934809.144897 1712.206909 458296.471680
 5934795.792969 1748.375854 458446.577148 5937392.947754 1749.485596 458411.800293 5937408.455566 1789.310059
 463917.616943 5927896.058105 1739.226929 463914.031494 5927893.343262 1783.490479 462820.286011 5929798.056885
 1747.782227 462814.883057 5929790.356934 1790.127441 461723.313538 5931698.676025 1697.559692 461718.450222
 5931691.292603 1737.848877 460624.291914 5933596.778764 1678.072266 460652.755859 5933560.899719 1719.016235
 459513.891846 5935496.822510 1695.576782 459443.197510 5935494.281250 1739.882202 459637.874268 5938082.009277
 1777.729858 459638.430420 5938124.677734 1821.526489 465132.462402 5928600.398926 1781.361572 465114.433350
 5928583.183105 1825.383423 464066.832764 5930573.086182 1679.727417 464055.683193 5930551.174420 1700.145386
 463028.361694 5932558.901398 1558.249023 462989.110590 5932494.110145 1598.894531 461858.998229 5934306.979458
 1640.779907 461770.390962 5934267.308101 1682.804077 460742.565308 5936166.189209 1691.412231 460725.939453
 5936236.171875 1739.893799 460834.104303 5938775.870623 1866.194946 460856.485046 5938828.477539 1919.974487
 466344.409180 5929302.295654 1747.657104 466318.407715 5929276.275391 1794.625000 465243.840576 5931217.489868
 1679.493408 465220.074559 5931151.878926 1722.464722 464144.791404 5933097.925928 1669.885620 464188.816162
 5933126.202301 1717.242554 463024.248274 5934976.103962 1665.115356 463077.946926 5935029.740754 1708.030151
 461919.081382 5936845.502164 1795.962891 461955.889572 5936957.683838 1868.958984 462046.549286 5939485.676270
 1939.289429 462061.731506 5939506.766602 2002.736816 467545.530762 5929992.441650 1739.770508 467532.075684
 5929979.073486 1787.557861 466447.285645 5931909.368652 1699.820801 466435.318359 5931851.108398 1743.556641
 465309.547852 5933743.240906 1694.132202 465368.013672 5933817.157166 1736.309326 464220.297852 5935664.347168
 1727.685791 464274.000732 5935714.056885 1767.938721 463126.579834 5937565.222656 1879.878540 463163.409546
 5937612.133789 1925.400269 460833.925232 5938775.449707 1865.764648 460856.285045 5938828.007427 1919.493896
/
ZCORN
 1709.698730 1745.553711 1702.892822 1673.563232 1716.330322 1753.503906 1713.841064 1682.236816
 1745.553711 1739.226929 1747.782227 1702.892822 1753.503906 1749.241333 1759.765625 1713.841064
 1739.226929 1781.361572 1728.356689 1747.782227 1749.241333 1793.369873 1743.466553 1759.765625
 1781.361572 1747.657104 1711.795288 1728.356689 1793.369873 1761.536621 1732.585205 1743.466553
 1747.657104 1739.770508 1699.820801 1679.493408 1761.536621 1754.695068 1715.432495 1694.657837
 1673.563232 1702.892822 1691.754028 1691.191772 1682.236816 1713.841064 1703.903931 1702.148071
 1702.892822 1747.782227 1697.559692 1691.754028 1713.841064 1759.765625 1711.884521 1703.903931
 1747.782227 1728.356689 1663.003906 1697.559692 1759.765625 1743.466553 1680.528198 1711.884521
 1679.727417 1679.493408 1629.303955 1558.249023 1679.727417 1694.657837 1648.256348 1567.600830
 1679.493408 1699.820801 1694.132202 1629.303955 1694.657837 1715.432495 1711.689331 1648.256348
 1691.191772 1692.518188 1684.869995 1675.899292 1702.148071 1704.578125 1699.546997 1688.807861
 1691.754028 1697.559692 1678.072266 1684.869995 1703.903931 1711.884521 1694.874878 1699.546997
 1697.559692 1663.003906 1664.959595 1678.072266 1711.884521 1680.528198 1682.296753 1694.874878
 1558.249023 1629.303955 1624.789062 1622.740479 1567.600830 1648.256348 1648.003296 1642.552368
 1669.885620 1694.132202 1727.685791 1665.115356 1689.849243 1711.689331 1746.914795 1684.841431
 1675.899292 1684.869995 1712.206909 1711.137329 1688.807861 1699.546997 1726.698364 1725.443970
 1684.869995 1650.703369 1695.576782 1712.206909 1699.546997 1669.574951 1714.601929 1726.698364
 1678.072266 1664.959595 1691.412231 1695.576782 1694.874878 1682.296753 1715.270264 1714.601929
 1640.779907 1663.677124 1741.592041 1692.519897 1660.653076 1689.311401 1768.459839 1714.651245
 1665.115356 1727.685791 1879.878540 1795.962891 1684.841431 1746.914795 1904.111938 1830.813110
 1711.137329 1712.206909 1749.324341 1731.017212 1725.443970 1726.698364 1766.164307 1745.910889
 1712.206909 1695.576782 1749.485596 1749.324341 1726.698364 1714.601929 1767.605713 1766.164307
 1695.576782 1692.780273 1777.729858 1749.485596 1714.601929 1715.090698 1799.391235 1767.605713
 1691.412231 1741.592041 1866.194946 1777.729858 1715.270264 1768.459839 1893.872437 1799.391235
 1795.962891 1879.878540 1939.289429 1865.764648 1830.813110 1904.111938 1973.799561 1893.479492
 1716.330322 1753.503906 1713.841064 1682.236816 1730.111572 1763.855103 1727.895874 1697.749146
 1753.503906 1749.241333 1759.765625 1713.841064 1763.855103 1754.782227 1769.167236 1727.895874
 1749.241333 1793.369873 1743.466553 1759.765625 1754.782227 1793.473877 1747.106812 1769.167236
 1793.369873 1761.536621 1732.585205 1743.466553 1793.473877 1761.536621 1732.585205 1747.106812
 1761.536621 1754.695068 1715.432495 1694.657837 1761.536621 1754.864136 1715.432495 1694.670654
 1682.236816 1713.841064 1703.903931 1702.148071 1697.749146 1727.895874 1718.786255 1719.148682
 1713.841064 1759.765625 1711.884521 1703.903931 1727.895874 1769.167236 1724.792236 1718.786255
 1759.765625 1743.466553 1680.528198 1711.884521 1769.167236 1747.106812 1688.066040 1724.792236
 1679.727417 1694.657837 1648.256348 1567.600830 1679.727417 1694.670654 1652.105103 1570.616455
 1694.657837 1715.432495 1711.689331 1648.256348 1694.670654 1715.432495 1711.853271 1652.105103
 1702.148071 1704.578125 1699.546997 1688.807861 1719.148682 1719.426636 1716.208862 1707.619263
 1703.903931 1711.884521 1694.874878 1699.546997 1718.786255 1724.792236 1710.505249 1716.208862
 1711.884521 1680.528198 1682.296753 1694.874878 1724.792236 1688.066040 1695.019531 1710.505249
 1567.600830 1648.256348 1648.003296 1642.552368 1570.616455 1652.105103 1661.379028 1656.596802
 1689.849243 1711.689331 1746.914795 1684.841431 1693.341064 1711.853271 1751.735352 1693.111328
 1688.807861 1699.546997 1726.698364 1725.443970 1707.619263 1716.208862 1745.951416 1747.879883
 1699.546997 1669.574951 1714.601929 1726.698364 1716.208862 1686.286377 1734.335693 1745.951416
 1694.874878 1682.296753 1715.270264 1714.601929 1710.505249 1695.019531 1732.354492 1734.335693
 1660.653076 1689.311401 1768.459839 1714.651245 1670.936523 1693.662598 1783.023560 1731.484863
 1684.841431 1746.914795 1904.111938 1830.813110 1693.111328 1751.735352 1914.007080 1852.583130
 1725.443970 1726.698364 1766.164307 1745.910889 1747.879883 1745.951416 1789.826660 1770.489868
 1726.698364 1714.601929 1767.605713 1766.164307 1745.951416 1734.335693 1787.225464 1789.826660
 1714.601929 1715.090698 1799.391235 1767.605713 1734.335693 1731.758057 1817.244995 1787.225464
 1715.270264 1768.459839 1893.872437 1799.391235 1732.354492 1783.023560 1912.218872 1817.244995
 1830.813110 1904.111938 1973.799561 1893.479492 1852.583130 1914.007080 1992.103516 1911.709961
 1730.111572 1763.855103 1727.895874 1697.749146 1749.481812 1786.306152 1745.088745 1710.265503
 1763.855103 1754.782227 1769.167236 1727.895874 1786.306152 1783.490479 1790.127441 1745.088745
 1754.782227 1793.473877 1747.106812 1769.167236 1783.490479 1825.383423 1774.771484 1790.127441
 1793.473877 1761.536621 1732.585205 1747.106812 1825.383423 1794.625000 1772.580933 1774.771484
 1761.536621 1754.864136 1715.432495 1694.670654 1794.625000 1787.557861 1743.556641 1722.464722
 1697.749146 1727.895874 1718.786255 1719.148682 1710.265503 1745.088745 1728.342651 1726.637085
 1727.895874 1769.167236 1724.792236 1718.786255 1745.088745 1790.127441 1737.848877 1728.342651
 1769.167236 1747.106812 1688.066040 1724.792236 1790.127441 1774.771484 1707.072021 1737.848877
 1679.727417 1694.670654 1652.105103 1570.616455 1700.145386 1722.464722 1678.516479 1598.894531
 1694.670654 1715.432495 1711.853271 1652.105103 1722.464722 1743.556641 1736.309326 1678.516479
 1719.148682 1719.426636 1716.208862 1707.619263 1726.637085 1729.029297 1721.807251 1711.420166
 1718.786255 1724.792236 1710.505249 1716.208862 1728.342651 1737.848877 1719.016235 1721.807251
 1724.792236 1688.066040 1695.019531 1710.505249 1737.848877 1707.072021 1704.657593 1719.016235
 1570.616455 1652.105103 1661.379028 1656.596802 1598.894531 1678.516479 1678.367554 1668.811523
 1693.341064 1711.853271 1751.735352 1693.111328 1717.242554 1736.309326 1767.938721 1708.030151
 1707.619263 1716.208862 1745.951416 1747.879883 1711.420166 1721.807251 1748.375854 1748.670776
 1716.208862 1686.286377 1734.335693 1745.951416 1721.807251 1694.973633 1739.882202 1748.375854
 1710.505249 1695.019531 1732.354492 1734.335693 1719.016235 1704.657593 1739.893799 1739.882202
 1670.936523 1693.662598 1783.023560 1731.484863 1682.804077 1713.114258 1795.385986 1739.062378
 1693.111328 1751.735352 1914.007080 1852.583130 1708.030151 1767.938721 1925.400269 1868.958984
 1747.879883 1745.951416 1789.826660 1770.489868 1748.670776 1748.375854 1790.103760 1770.489868
 1745.951416 1734.335693 1787.225464 1789.826660 1748.375854 1739.882202 1789.310059 1790.103760
 1734.335693 1731.758057 1817.244995 1787.225464 1739.882202 1739.411865 1821.526489 1789.310059
 1732.354492 1783.023560 1912.218872 1817.244995 1739.893799 1795.385986 1919.974487 1821.526489
 1852.583130 1914.007080 1992.103516 1911.709961 1868.958984 1925.400269 2002.736816 1919.493896
/
ACTNUM
 1 1 1 1 1 1 1 1
 1 1 1 1 1 1 1 1
 1 1 1 1 1 1 1 1
 1 1 1 1 1 1 1 1
 1 1 1 1 1 1 1 1
 1 1 1 1 1 1 1 1
 1 1 1 1 1 1 1 1
 1 1 1 1 1 1 1 1
 1 1 1 1 1 1 1 1
 1 1 1
/
